LAMMPS data file generated by tdmd

4 atoms
1 atom types

0.00000000 10.00000000 xlo xhi
0.00000000 10.00000000 ylo yhi
0.00000000 10.00000000 zlo zhi

Masses

1 1.00000000

Atoms # atomic

1 1 1.00000000 1.00000000 1.00000000
2 1 2.00000000 2.00000000 2.00000000
3 1 3.00000000 3.00000000 3.00000000
4 1 4.00000000 4.00000000 4.00000000

Velocities

1 0.00000000 0.10000000 0.20000000
2 0.00000000 0.00000000 0.00000000
3 -0.10000000 0.00000000 0.10000000
4 0.20000000 -0.10000000 0.00000000
